
Host: jerry-virtual-machine

Timers On : Fri Jul 28 17:11:14 2017
Timers Off: Fri Jul 28 17:11:17 2017

Wall Time:        3.11 seconds


